
375 atoms
2 atom types
   0.0000000000   14.6878010000 xlo xhi
   0.0000000000   14.6878010000 ylo yhi
   0.0000000000   14.6878010000 zlo zhi
   0.0000000000    0.0000000000    0.0000000000 xy xz yz

Atoms # atomic

     1      1    0.9264040000    1.9235440000    3.2950240000
     2      1    8.1005240000   10.0608040000   12.2813040000
     3      1    5.1303140000    3.0430440000   12.9581040000
     4      1    4.3224740000    2.8690440000    5.4063440000
     5      1    9.0255340000   10.4245040000   13.5300040000
     6      1    2.9233040000    0.2439530000    6.8006540000
     7      1    4.1848640000   14.4320040000   12.8302040000
     8      1   12.9766040000   11.8374040000   11.7742040000
     9      1    5.1450640000    0.7055540000   12.0113040000
    10      1    1.7090640000   10.0653040000    1.7905440000
    11      1    1.7959940000    6.3972340000   10.0645040000
    12      1    7.1759840000   10.1140040000   10.3643040000
    13      1    3.9826640000    3.6424940000   13.7423040000
    14      1    4.1248240000    3.4112940000    6.8648040000
    15      1    8.7067540000    4.6217740000    5.0953140000
    16      1    4.1638540000   14.0287040000    6.7275340000
    17      1   14.0739040000   13.7128040000   14.2509040000
    18      1   12.4745040000   13.4517040000   13.6037040000
    19      1    8.4621040000    7.7335440000    7.6060340000
    20      1    5.8272040000    9.0588140000   13.1104040000
    21      1    2.0655540000   11.0476040000    3.0723840000
    22      1   12.9133040000    7.9221740000    2.0234240000
    23      1    7.4600440000    3.7538140000    4.5898940000
    24      1    2.8609740000    5.7517940000    7.9266340000
    25      1    2.9418540000    5.6851040000    6.2674240000
    26      1    5.5895440000    7.6657640000   12.8767040000
    27      1    1.1983240000    7.0735640000    8.8592540000
    28      1    1.6916140000   11.4396040000   10.0692040000
    29      1   13.8553040000    8.9555240000    7.7200240000
    30      1   14.0087040000   10.4311040000    7.0208840000
    31      1    1.6338640000    0.8252240000   10.3931040000
    32      1   10.7533040000   11.6014040000   14.5613040000
    33      1    1.0923040000    4.8092940000   11.8274040000
    34      1    3.0064540000    0.4135860000   11.0315040000
    35      1   12.4497040000    8.8904240000   13.5902040000
    36      1   12.8947040000    4.2817340000    1.5660840000
    37      1   11.4878040000   12.5495040000    9.4637340000
    38      1    4.6817740000    0.5240100000    8.1518140000
    39      1   10.3872040000   13.1260040000    0.3898450000
    40      1   12.3484040000    2.8713340000    2.1975940000
    41      1    9.5609240000    7.8580840000    6.4527440000
    42      1    5.8022040000   12.4151040000    5.6619640000
    43      1    4.8877740000   12.5263040000    4.5087640000
    44      1   12.8876040000    0.1427240000   11.5881040000
    45      1   10.9285040000   13.9687040000    8.9042040000
    46      1   11.2776040000    8.5164140000   12.5547040000
    47      1    8.1759740000    0.8821340000    7.0051440000
    48      1   13.1224040000    3.0120940000   11.9154040000
    49      1    4.0578940000    6.8537640000    0.4383360000
    50      1   11.5625040000    9.1435840000    5.3051540000
    51      1    3.7745340000    6.2033840000   13.8411040000
    52      1   11.9653040000    3.9693640000   11.5025040000
    53      1    9.5944040000    4.5575640000    9.2036940000
    54      1    4.9923240000    6.0192240000    7.5689040000
    55      1    5.6447440000    4.8834040000    6.8098040000
    56      1   11.9186040000    7.8191240000    4.5322140000
    57      1    0.7127740000    1.1816040000    1.0248140000
    58      1    7.2191140000   13.1428040000    3.6899840000
    59      1    4.1461640000    2.4021340000    1.6501140000
    60      1    6.3562540000    8.7883740000    4.1776040000
    61      1    3.8258140000    3.7775840000    1.0623340000
    62      1    8.5133640000   13.7560040000    8.0849040000
    63      1    9.8360040000    5.3948840000   10.5055040000
    64      1    6.7237940000   10.3022040000    3.9441540000
    65      1    9.9860040000    2.3042140000    9.2551140000
    66      1   11.0318040000    1.3260540000    4.0589240000
    67      1    1.1621740000   12.1139040000    1.1023740000
    68      1    8.4514240000    4.6941640000   11.9078040000
    69      1    0.0663290000    3.9959340000    7.8002540000
    70      1   13.1831040000    6.3138240000    0.2688690000
    71      1    9.1963540000    3.9458640000    1.8313440000
    72      1   13.6364040000    6.7238640000   11.5397040000
    73      1   12.1274040000    5.2974740000   14.3607040000
    74      1   11.0208040000    2.4667840000    5.1694240000
    75      1    8.3867240000   13.7445040000    0.7613840000
    76      1    1.4292740000    4.1172240000    7.0212440000
    77      1    7.0090840000   10.9666040000   14.2027040000
    78      1    7.2056040000    4.0031740000   11.4365040000
    79      1    8.1046340000   12.7803040000    1.9918640000
    80      1    2.8934240000    2.8507440000    3.4838740000
    81      1    9.5364940000   13.8390040000    2.2901440000
    82      1   10.4776040000    5.3596240000   13.4428040000
    83      1    2.1821540000   12.9645040000    0.1885970000
    84      1    6.9619140000    3.5829840000    1.9077040000
    85      1   10.1853040000    3.1323240000    0.9805140000
    86      1    8.2322840000    2.2271940000    1.7584140000
    87      1    3.2082440000    1.4213840000    4.0537440000
    88      1    2.8000740000   10.0579040000    5.1081740000
    89      1   13.6898040000   10.4312040000   13.5851040000
    90      1    9.0300340000    2.0181640000    2.9803340000
    91      1    3.1520240000   11.5379040000    4.8838440000
    92      1    1.7268040000    3.6900340000   14.1444040000
    93      1   13.6315040000    9.9944040000   10.7888040000
    94      1   13.9922040000    9.3432040000    9.3994040000
    95      1    2.1846340000    4.2882340000   10.6372040000
    96      1    1.5352540000    1.5162240000    7.6618340000
    97      1    4.1679440000    9.8354040000    6.7648340000
    98      1    2.1937540000    2.1169340000   14.4501040000
    99      1    1.7220340000   13.3336040000   11.7320040000
   100      1    4.9033740000    9.5283040000    5.2507540000
   101      1   11.7357040000    5.8491040000   12.5504040000
   102      1    2.7657640000    8.4414040000    9.9914040000
   103      1   13.3072040000    0.5716360000    7.4530740000
   104      1    3.6900440000    9.5373340000    9.6106040000
   105      1   11.3655040000    6.8035640000    6.6355240000
   106      1    1.1993240000   12.6366040000   13.0778040000
   107      1    0.9901240000    2.2727340000    6.5848440000
   108      1   12.2497040000   10.9809040000    3.5935440000
   109      1   12.5570040000   14.0388040000   10.2674040000
   110      1   11.7301040000   11.5761040000    4.9995040000
   111      1    5.0598840000   10.3123040000    1.0371240000
   112      1   12.6569040000    7.3469840000   10.6841040000
   113      1    8.5130040000    0.8022940000   13.6169040000
   114      1   13.8319040000    9.8933040000    4.7612540000
   115      1    0.6003640000    8.4094140000   11.4255040000
   116      1    5.5447140000    2.0784840000   14.5524040000
   117      1    0.5725640000    9.6771040000    4.2121740000
   118      1    7.4465440000   14.7701040000   13.1133040000
   119      1    1.4227840000    7.8573240000   12.6188040000
   120      1   14.6385040000   13.9499040000    8.9400540000
   121      1    3.5384940000    9.6122040000    0.8565940000
   122      1    0.5714320000    0.2258210000    7.7981940000
   123      1    5.5870740000   10.3907040000   14.0327040000
   124      1   10.5578040000    3.0899640000    7.9274640000
   125      1    6.6472440000    1.0609940000    0.1936370000
   126      1    8.3045040000   11.9633040000    3.8209840000
   127      1    7.2662240000    7.0911740000    9.1221340000
   128      1   11.5327040000    7.0735240000    2.0138440000
   129      1   14.6133040000   12.0686040000   12.0051040000
   130      1    5.3134240000    6.1959340000    2.9877640000
   131      1    2.6090540000   11.2970040000    8.3624340000
   132      1   14.3363040000    2.3254440000    2.4712540000
   133      1   14.0424040000   14.3668040000    2.5366940000
   134      1    7.2571340000    0.5608180000    4.8845140000
   135      1    1.6674240000    4.0484640000    4.8454540000
   136      1    6.6870240000    3.4092540000    9.5086440000
   137      1    5.6733740000    4.5181840000    8.9848040000
   138      1    9.9522040000    7.5463240000   14.6471040000
   139      1   12.6112040000    0.3109320000    0.7982040000
   140      1    7.3997440000    0.8207940000    3.4338340000
   141      1   11.2631040000    0.4430700000    1.7320640000
   142      1    6.2359440000    7.6934940000    0.5370510000
   143      1    3.6393840000    6.5150640000    4.3195940000
   144      1    5.2709340000    8.2954140000    1.6016140000
   145      1    1.7038440000    4.7257740000    3.4999840000
   146      1    0.3365210000   13.4106040000    3.1879540000
   147      1   10.2456040000   10.9266040000    8.2164840000
   148      1    6.7873040000    0.1524450000   10.7516040000
   149      1    1.0874340000    3.7241540000    1.7752540000
   150      1    7.0442940000   10.1736040000    6.4964940000
   151      1    8.9310840000   10.0182040000    5.3498240000
   152      1    7.4301940000    1.6640440000   10.9513040000
   153      1    6.5823640000    6.1419840000    4.7899240000
   154      1   10.0923040000   10.5374040000    4.4716440000
   155      1    7.6604440000   11.1669040000    7.5654740000
   156      1    5.3715240000   13.8433040000    9.8329040000
   157      1    1.8059740000   12.9157040000    9.6684040000
   158      1   10.9735040000    5.4956540000    4.3920940000
   159      1    9.3127540000    1.0431740000    5.9522640000
   160      1    1.0332340000    5.0374840000    1.0497340000
   161      1    5.3321840000    8.9031740000    9.0852640000
   162      1   12.1578040000   10.1745040000    8.4517540000
   163      1    7.3184540000    7.1858540000    5.8127640000
   164      1   11.5422040000   10.6990040000    9.9302040000
   165      1   13.6011040000    6.7719840000    7.9469340000
   166      1    5.0598340000    8.1542540000    7.8412140000
   167      1   14.6800040000    6.9374140000    6.9343740000
   168      1   14.5470040000    4.7336540000   13.8695040000
   169      1   13.2117040000    1.8429040000   13.5419040000
   170      1    4.5752540000    3.4746840000   10.3241040000
   171      1    8.8539440000    6.7104540000   13.1509040000
   172      1    7.8154840000    6.3274240000    2.8572040000
   173      1    7.3036940000    3.0874240000    6.9393540000
   174      1    9.3196540000    6.1203040000    3.2583140000
   175      1    9.8439040000    9.8416040000    0.7122940000
   176      1    8.4980040000   13.3416040000   10.8995040000
   177      1    8.0048840000    6.9905140000   11.7984040000
   178      1    1.1269440000   14.5328040000    0.3590600000
   179      1    8.5809340000   12.5983040000    9.0009240000
   180      1   10.8257040000    9.2453840000   14.2498040000
   181      1   10.1412040000    2.1450240000   13.5422040000
   182      1   11.0678040000    0.9915240000   14.3031040000
   183      1    8.3612640000    2.6117340000    8.0326640000
   184      1    0.4884990000    6.1630240000   13.6233040000
   185      1   10.1508040000    4.4288340000    3.5736340000
   186      1    2.3974840000    7.5755640000    3.3082240000
   187      1    8.4550140000   12.6676040000   12.4242040000
   188      1    9.2868840000   11.4382040000    6.9654040000
   189      1    3.0000540000    8.7223840000    2.3571340000
   190      1    5.0771940000   12.7340040000   13.9928040000
   191      1    1.4593640000   14.7004040000    4.1065940000
   192      1    9.1254840000    6.3707540000    0.7712540000
   193      1    1.4468740000    9.0593040000   14.8212040000
   194      1    8.4252840000    8.4180940000    2.3589440000
   195      1   11.0223040000    2.2007740000   11.0359040000
   196      1    3.8963240000   12.1803040000   13.1091040000
   197      1   13.2274040000   13.7346040000    4.1986840000
   198      1    0.3552660000    4.4148540000    9.9183040000
   199      1    7.0831240000    5.0567840000    1.6143340000
   200      1    3.6125840000   10.2480040000   11.8683040000
   201      1   10.2888040000    1.0232240000   11.5281040000
   202      1    1.5246140000   13.7645040000    5.2438540000
   203      1    2.5430540000    7.9182140000   14.4357040000
   204      1   13.5588040000    3.8900240000    9.7178040000
   205      1    3.2739840000    9.8920040000   13.3764040000
   206      1    9.1405540000    9.7406040000    2.6919140000
   207      1    4.6743740000    4.9139740000    2.4852940000
   208      1   13.6809040000   13.1060040000    5.4936040000
   209      1   10.3746040000   13.7611040000    3.5798840000
   210      1    3.7999840000   12.0664040000    7.7101440000
   211      1    7.8816940000    8.8355140000    9.9664040000
   212      1    3.8559640000    7.6210040000    5.4260240000
   213      1    0.2703250000    7.5837040000    1.2988740000
   214      1   13.1610040000   10.3154040000    0.4400810000
   215      1    0.7061240000    2.6141540000    9.4574540000
   216      1    0.3702940000    7.6252640000    5.0147140000
   217      1   14.4164040000    1.5799940000   10.0277040000
   218      1   11.0315040000   13.3570040000    6.4732840000
   219      1   14.1004040000    8.1060040000   14.7201040000
   220      1    9.5444440000   13.9194040000    6.1681840000
   221      1   11.0565040000    5.9922440000    7.9237040000
   222      1   12.7520040000    0.5229780000    6.0295340000
   223      1    4.3193040000   14.4242040000    3.0129040000
   224      1   12.9984040000    4.6493440000    3.8108940000
   225      1   13.4524040000    5.4748440000    5.0802740000
   226      1    5.3688340000    0.6463540000    3.6418840000
   227      1    5.5553040000   11.4265040000   10.0243040000
   228      1    1.0442340000    6.1730240000    5.1344440000
   229      1    4.6853540000   13.5123040000   11.1930040000
   230      1    5.4373940000   10.9155040000    8.6302040000
   231      1    6.2731040000    1.0915440000    8.0252340000
   232      1    8.3427340000    3.3464440000   13.3968040000
   233      1    7.4881240000    2.6665340000   14.6811040000
   234      1   12.1909040000    2.4807440000    6.7206940000
   235      1    8.7504940000    6.4033340000    9.2527740000
   236      1    9.8160040000    8.9215240000   11.0826040000
   237      1    0.2619080000   12.6161040000    7.0432640000
   238      1   10.5351040000   12.6913040000   11.7168040000
   239      1    5.4230040000    5.8263740000   11.0893040000
   240      1    5.3209840000   12.7409040000    2.3829940000
   241      1   13.3571040000   12.1454040000    2.1849340000
   242      1   12.1395040000   11.7549040000    1.3595140000
   243      1   10.9451040000    8.9076440000   10.1327040000
   244      1    5.0349540000    7.3043840000   10.6236040000
   245      1    1.2222940000   11.7686040000    6.0560840000
   246      1    4.0973640000   11.6674040000    2.7075340000
   247      1   12.0541040000    4.0004840000    6.1799340000
   248      1    0.0175270000    1.7391640000   13.2085040000
   249      1    3.6850040000    2.8310140000   11.6156040000
   250      1   10.8970040000   11.3044040000   11.9724040000
   251      2    6.3398140000    8.1916840000   13.1984040000
   252      2   13.8893040000   11.4340040000   12.0478040000
   253      2    4.7988240000    3.1846040000    6.2036840000
   254      2    4.1737240000    0.5883140000   12.3054040000
   255      2    3.2970640000   14.1172040000    7.1865240000
   256      2   13.1831040000   14.0746040000   13.9833040000
   257      2    1.5752640000   10.9394040000    2.2001840000
   258      2    8.2819040000   10.7337040000   12.9826040000
   259      2    4.9654840000    3.6255940000   13.6935040000
   260      2    7.8559140000    4.1470940000    5.3695540000
   261      2    2.0986840000    6.8883240000    9.2576540000
   262      2   12.1998040000    7.4806840000    2.6442940000
   263      2    8.6171240000    8.0895140000    6.6352440000
   264      2    1.2847840000   12.7493040000    0.2953220000
   265      2    2.1848440000    0.0456960000   10.6688040000
   266      2   13.1067040000    3.5431540000    2.1820640000
   267      2   13.5601040000    9.9066040000    7.7390440000
   268      2   11.7245040000   13.3944040000    8.9218540000
   269      2    4.8859240000   12.7060040000    5.4576240000
   270      2    1.5320840000   12.0573040000    9.2507340000
   271      2   10.8935040000   12.5826040000   14.4952040000
   272      2   11.7689040000    8.1804640000   13.3347040000
   273      2    1.3975940000    4.7984240000   10.8888040000
   274      2   13.3347040000   14.2720040000   10.8742040000
   275      2   12.5039040000    3.2291140000   11.1702040000
   276      2    5.6817540000    5.2878340000    7.7396040000
   277      2   11.2793040000    8.2100840000    5.1674840000
   278      2    1.2008140000    0.8406840000    0.2333700000
   279      2    3.8160840000    3.2997440000    1.9148240000
   280      2    3.3225840000    6.6565840000   14.5242040000
   281      2    8.3035140000   13.5546040000    8.9851740000
   282      2    9.8736040000    3.0066440000    8.5671040000
   283      2    8.8566340000   13.3350040000   11.8356040000
   284      2    6.0155240000    9.6887040000    4.1764040000
   285      2    8.6314040000   12.8280040000    1.1555540000
   286      2    8.1328240000    3.7963340000   11.6625040000
   287      2   12.7987040000    5.3814240000    0.3522950000
   288      2    2.9079440000    5.1461340000    7.0993740000
   289      2   10.0903040000   14.3805040000    2.8955540000
   290      2    0.4599480000    3.9381640000    6.8790940000
   291      2   11.3098040000    5.1047040000   13.0634040000
   292      2   10.4609040000    2.0496540000    4.4181240000
   293      2    1.4451340000    1.4061240000    6.7105140000
   294      2   13.8180040000    9.1397340000   10.3560040000
   295      2    1.6205740000   12.4242040000   12.2031040000
   296      2    2.4775240000    3.0127740000   14.0313040000
   297      2    2.4911040000   10.8520040000    4.7127440000
   298      2    2.5382140000    2.1288240000    4.0517040000
   299      2    4.2532840000    9.2247940000    6.0561840000
   300      2   12.6500040000    0.9837140000    6.8484640000
   301      2    2.9432040000    9.3924340000   10.2334040000
   302      2    8.3525440000    1.5881340000    2.4178840000
   303      2   13.5538040000    9.8186040000   14.3072040000
   304      2    6.1204840000    1.8056140000    0.6127540000
   305      2   14.7067040000   14.0939040000    7.9880840000
   306      2    7.7114940000    0.3525560000   13.9695040000
   307      2   11.9221040000   10.7164040000    4.5700540000
   308      2    6.2202540000   10.8572040000   -0.0033590000
   309      2   14.3678040000    9.1730040000    4.3433640000
   310      2    7.4483740000   12.2284040000    3.3364340000
   311      2    0.9572740000    7.5097540000   11.8076040000
   312      2    4.3150940000    9.7839040000    1.5151040000
   313      2   10.0839040000    3.7980840000    1.7288940000
   314      2   12.8829040000    6.4251240000   10.9546040000
   315      2    9.7301040000    5.4633240000    9.5769040000
   316      2    7.8700540000    9.5357040000   10.5932040000
   317      2    3.3515740000   11.2009040000    7.7649640000
   318      2   14.1263040000   13.4633040000    2.7576040000
   319      2    0.1281330000    1.5375040000    2.7958540000
   320      2    6.8198440000    0.2084950000    4.0353440000
   321      2    6.0357040000    4.0469940000    9.8730040000
   322      2   14.3488040000    4.0694440000    9.1982540000
   323      2   11.9210040000    0.9579340000    1.2374140000
   324      2    2.0608640000    4.8415440000    4.4339840000
   325      2    1.0021940000    4.7076040000    1.9767440000
   326      2    6.5129340000    7.0321140000    5.2141340000
   327      2    6.6845340000    1.0555940000   11.1791040000
   328      2    5.3712040000    7.9828940000    8.7181940000
   329      2    9.3341940000   11.2933040000    7.9732140000
   330      2    5.1877840000   13.1263040000   10.4646040000
   331      2    9.0390640000   10.5820040000    4.5857740000
   332      2   11.3642040000   10.1298040000    9.1202140000
   333      2    6.8861340000   11.0008040000    6.9220640000
   334      2   10.0776040000    5.1829140000    4.1356840000
   335      2   14.3824040000    7.3227840000    7.8480140000
   336      2    8.5300040000    0.5281560000    6.1673940000
   337      2    5.6398540000    0.3698240000    8.2480040000
   338      2    8.6540840000    6.4397240000   12.2066040000
   339      2   10.4805040000    1.2435640000   13.4760040000
   340      2    3.6250640000    3.2702640000   10.7660040000
   341      2    8.6801340000    6.6303540000    2.6878040000
   342      2   10.3417040000   10.1034040000   14.5597040000
   343      2    7.4465340000    2.4513840000    7.7223940000
   344      2    5.7884040000    7.5897140000    1.3792940000
   345      2    2.1665240000    8.1682140000    2.5520040000
   346      2    0.6792440000    5.2032340000   13.6247040000
   347      2    7.4024840000    4.3830040000    2.2451740000
   348      2    4.2175740000   12.9349040000   13.6083040000
   349      2    2.3257840000    8.9245440000   14.4411040000
   350      2   10.4512040000    1.4798640000   10.7181040000
   351      2    9.4774840000    6.6702640000   14.6187040000
   352      2    1.5881140000   13.7742040000    4.2555640000
   353      2    4.0351440000   10.3566040000   12.7910040000
   354      2    3.1842840000    7.0168740000    5.0617740000
   355      2    4.5514740000    5.6879740000    3.1193040000
   356      2    8.8335840000    9.2114640000    1.9664040000
   357      2   12.9037040000   13.5849040000    5.0664040000
   358      2   12.7328040000    4.8023340000    4.8039740000
   359      2    5.8161440000   10.6523040000    9.5444940000
   360      2   11.7596040000    6.5380340000    7.5181840000
   361      2    8.2148840000    3.3401340000   14.4123040000
   362      2   10.2434040000   13.2050040000    5.8541040000
   363      2    0.0021860000    7.3782340000    0.4038870000
   364      2    4.4375340000    0.6120640000    3.3403640000
   365      2    0.6658240000    1.6469940000    9.6860040000
   366      2    0.2400560000    6.7088940000    5.3607140000
   367      2    4.8252840000    6.6001240000   11.2369040000
   368      2   13.9502040000    2.3726740000   13.0509040000
   369      2    8.2108740000    7.3020340000    9.0846140000
   370      2   11.2666040000   12.0893040000   11.4906040000
   371      2    4.3851240000   12.5929040000    2.6221040000
   372      2   12.6859040000   11.4159040000    2.0649440000
   373      2   10.7058040000    8.4923540000   11.0141040000
   374      2   11.5872040000    3.2281740000    6.6345140000
   375      2    0.2432660000   11.9931040000    6.3122940000
